{"wordCounts":{"been":1,"half":2,"dec":2,"year":5,"smiles":2,"shooting":1,"memoriesrosie":1,"settlementl":1,"texas":1,"housescott":1,"cafeteria":1,"ban":1,"fond":1,"ted":1,"would":3,"—":2,"gallons":4,"corinthian":4,"because":2,"near":2,"chicago":1,"moving":1,"915":2,"you":3,"incomes":1,"promoting":1,"\"":1,"\u0027":1,"roenicke":2,"july":1,"bill":5,"ray":2,"court":3,"an":7,"uncanny":1,"former":4,"coachc":1,"1":2,"as":9,"2":5,"at":19,"3":5,"graduating":1,"teammates\u00272015":1,"left":4,"5":1,"6":2,"trying":2,"plans":1,"7":1,"restaurants":1,"millions":1,"gallerieskilling":1,"veteransrace":1,"southern":3,"luis":1,"truckload":1,"be":1,"angelesback":1,"least":1,"how":1,"renderings":1,"billionarne":1,"by":4,"national":2,"commission":1,"customers":3,"after":7,"deadline":1,"demonstrationssan":1,"flip":1,"sen":1,"close":1,"enrolled":2,"sep":2,"mine":1,"a":36,"set":2,"c":1,"business":1,"laden":2,"jobs":1,"photo":1,"j":1,"right":2,"l":4,"lorenzo":1,"shoes":1,"food":1,"mazzone":1,"the":60,"unilaterally":1,"police":4,"sandra":1,"readers":1,"gunshots":1,"returning":2,"series":2,"dunham:":1,"regain":1,"river":4,"paul":4,"under":1,"|":1,"onthe":1,"hollywood":2,"london":1,"putting":1,"sometimes":1,"arkansas":1,"gop":1,"robbery":1,"resumes":1,"hold":2,"gov":1,"acid":2,"act":1,"rare":1,"airlines":1,"laugh":1,"contributed":2,"area":1," ":1,"coordinator":1,"angeles":5,"need":1,"2000":1,"pay":1,"arsenic":2,"walker":1,"scrub":1,"ventures":1,"rivals":1,"mountainsentertainment":1,"she":3,"mines":2,"sleeper":1,"favreau":1,"acres":1,"frame":2,"income":1,"some":3,"blogman":1,"mountains":1,"rams\u0027":1,"for":14,"overwhelmed":1,"back":1,"training":1,"miles":1,"santa":1,"states":1,"westside":1,"immigrationbiggest":1,"teachers":1,"strikes":1,"trouble":1,"ignore":1,"diego":1,"bland":1,"end":1,"maria":1,"debacles":1,"ferrandiz":2,"lena":1,"yetfor":1,"starbucks":2,"fanschargers":1,"attended":1,"gi":6,"historic":1,"captures":2,"pour":2,"graders":1,"oarfish":1,"football":1,"label":1,"colorado":2,"killed":2,"home":1,"kettleman":1,"firesamgen":1,"with":5,"spotthe":1,"740":2,"2016":1,"2015":3,"2014":2,"there":1,"beach":5,"well":1,"decades":1,"wade":1,"he":5,"president":1,"college":2,"sayfresno":1,"openfrom":1,"tries":1,"big":1,"career":2,"education":1,"movie":1,"debaclesback":1,"charter":1,"racedonald":1,"delayed":1,"years":3,"cleanup:":1,"2016jul":1,"four":1,"stadium":2,"per":2,"if":2,"there\u0027s":1,"oct":1,"in":40,"sayspeek":1,"made":2,"chasing":1,"suspected":1,"classroom":4,"is":11,"being":2,"it":2,"rave":1,"thousands":2,"\u0027s":1,"foolish":1,"suspended":2,"yorkjon":1,"conversationtoday\u0027s":1,"brawn":1,"system":2,"million":3,"oakland":1,"suspectthousands":1,"schools":1,"asks":2,"trump\u0027s":1,"coach":2,"\u0027jungle":1,"women":2,"chelsea":1,"other":3,"hundred":1,"city":2,"missioncolumn:":1,"payments":1,"tailor":1,"isn\u0027t":2,"local":1,"healthcare":1,"mckibben:":1,"covina":2,"dodgers":1,"o\u0027donnell\u0027s":1,"ucladodgers":1,"top":4,"\u0027excessive":1,"brewers":2,"have":4,"share":1,"man":1,"camera":3,"restroom":2,"affordable":2,"tender":1,"overdose":2,"gaming":1,"immigration":2,"timesnation":1,"within":1,"teachersback":1,"could":2,"30%":1,"educationvideo":1,"picture":2,"off":3,"540":2,"debateas":1,"names":1,"species":1,"future":1,"report":1,"websites":1,"use":2,"calstrs":1,"sign":2,"chargeso":1,"teenage":1,"nigel":1,"trial":1,"homicide":1,"lausd\u0027s":1,"that":5,"faster":1,"biggest":1,"than":2,"west":2,"colleges’":4,"brian":1,"sox":2,"administrators":2,"all":2,"waste":2,"always":1,"storiesin":1,"new":1,"toxic":1,"lax":1,"ucla\u0027s":1,"law":1,"months":2,"author":1,"helpjul":1,"bangkok":2,"duara":1,"less":1,"firefighters":1,"becomes":1,"army":1,"obamacare":1,"recesses":1,"nfl":1,"were":2,"cadmium":2,"individually":1,"bombing":2,"position":1,"since":1,"behind":2,"leverage":1,"arrested":2,"code":1,"newsl":1,"student":1,"animas":4,"roe":1,"bundy":1,"photorealistic":1,"around":2,"ron":2,"times":1,"teacher":4,"blume":1,"receivers":1,"and":23,"of":35,"design":1,"men":1,"talented":2,"prices":1,"says":1,"make":1,"fouled":2,"on":22,"videosmarine":1,"falling":1,"or":1,"surges":1,"bolts":1,"homeless":1,"entrepreneurial":1,"minute":2,"clerk":1,"orange":1,"samardzija":1,"ravegrim":1,"maritza":2,"due":1,"acre":1,"drainage":2,"walk":2,"caught":1,"14bill":1,"about":1,"led":2,"hiding":1,"sportscalifornia":1,"bank":1,"ongoing":2,"flashpoint":1,"fire":2,"hired":1,"noel":1,"injury":2,"lapd":1,"they":3,"element":1,"resident":2,"10":1,"lightning":1,"using":1,"chaos":2,"receiver":1,"15":1,"billother":1,"16":1,"17":2,"remain":1,"old":2,"18":5,"want":1,"allowance":2,"hourssuspect":1,"then":2,"remaining":1,"000":1,"wyotech":4,"wanted":1,"duncan:":1,"o\u0027donnell":1,"grade":2,"difference":1,"dwp":2,"telesis":2,"21":2,"24":1,"fatally":1,"housing":5,"201618":1,"students":5,"havanabon":1,"devin":1,"teens":1,"two":2,"marine":5,"long":4,"seen":1,"into":5,"diversity":1,"found":1,"are":6,"reported":1,"where":3,"so":1,"arm":1,"31":1,"hander":1,"latest":2,"california\u0027s":1,"teenager":1,"offensive":1,"middle":1,"manager":2,"decision":1,"jose":1,"one":2,"accused":1,"makes":1,"manhattan":1,"chargers":1,"many":2,"tour":1,"transportation":1,"such":2,"style:":1,"fixinghow":1,"mismatch":1,"closed":2,"to":40,"campuses":2,"but":4,"44":1,"announces":1,"medical":2,"abortion":1,"endangered":1,"project":2,"had":1,"inside":1,"debate":1,"view":1,"white":3,"school":10,"california":7,"shoot":1,"has":6,"up":2,"montebello":3,"tech":2,"offers":1,"brush":2,"last":5,"solutions":1,"campus":4,"this":2,"develop":1,"\u0027great":1,"camp":2,"elected":1,"clifton\u0027s":1,"valleybabyface":1,"aug":7,"malfunctioning":2,"reopen":1,"district":2,"quake":1,"region":1,"leaving":1,"vs":2,"next":1,"benefits":2,"retirejul":1,"hidden":3,"hire":1,"records":2,"america:":1,"father":2,"classes":2,"ranger":1,"figured":1,"learning":1,"commerce":2,"16education":1,"life":1,"filming":1,"street":2,"limitsamerican":1,"now":3,"missing":2,"archives:":1,"71":1,"lived":2,"teensbrush":1,"polytechnic":2,"notwithstanding":1,"suspicion":1,"center":2,"was":3,"hairfirst":1,"technology":1,"videogirl":1,"court\u0027s":1,"renewed":1,"money":3,"urban":1,"removal":1,"flame":1,"base":2,"software":1,"poured":2,"jeff":1,"during":1,"rent":1,"three":4,"appetit":1,"put":1,"washes":1,"her":4,"usespolice":1,"carbon":1,"safety":1,"games":1,"officials":1,"season":1,"homeovercharged":1,"struggling":1,"trucksouthland":1,"enter":2,"heightening":1,"truly":1,"presence":1,"plan":1,"mcknight":1,"96":2,"between":1,"grows":1,"lives":1,"briefly":1,"lose":1,"supreme":4,"fbi":2,"winexide":1,"saving":1,"chris":2,"excessive":1,"refund":1,"carson":1,"signature":1,"wear":1,"martinez":1,"fajardo":4,"gain":1,"southland":1,"cron\u0027s":1,"across":2,"los":6,"uniform":1,"mortgage":1,"blaze":1,"angels":1,"get":2,"continues":2,"blazesfor":1,"grown":1,"near600":1,"ashoretwo":1,"academy":2,"regular":1,"crutch":2,"\"not":1,"caused":2,"more":2,"households":1,"suspect":1,"lead":3,"timeshow":1,"help":1,"calpers":1,"unified":2,"catalina":1,"cruz":1,"hanging":1,"onetime":1,"first":7,"sep182014":1,"moneythe":1,"huckabee":1,"feb":2,"pursuing":2,"before":2,"campers":1,"replace":1,"experience":1,"dozen":1,"diedas":1,"hip":2,"drug":1,"his":6,"major":2,"schoolmine":1,"only":3,"emphasis":1,"from":9,"day":4,"vine":2,"raiders":2,"described":1,"cortez":2,"repeatedly":1,"sparks":1,"crisis":1,"island":1,"it\u0027s":2,"headwaters":2,"tree":1,"water":4,"illegal":1,"lovers":1,"corps":6,"both":2,"market":1,"backlog":1,"veteran":7,"yosemite":2,"killings:":1,"elementary":2,"ipad":2,"departure":2,"daughter":1,"judges":1,"who":3,"tens":1,"kindergarten":2,"week":2,"death":1,"mike":1,"line":2,"book\u0027":1,"howard":1,"their":3,"why":1,"footing":1,"fuller":1,"publisher:":1,"city370":1,"security":1,"incubator":1,"billion":1,"hottest":1,"car":2,"spend":1,"said":1,"track":1,"dies":1,"profit":1,"sal":1,"designwide":1,"limb":1,"san":2,"move":2,"sludge":2,"cost":1,"assistant":2,"february":2,"countyearthquake:":1,"eighth":1,"colleges":1,"alternative":1,"milwaukee":1,"jack":1,"recommended":1,"trade":1,"tuesday":1,"third":2,"round":1,"stockton":1,"build":3,"serial":1,"polo":1,"investigation":2,"determining":1,"uses":2,"obispo":1,"flights":1,"vega":2},"timeStamp":{"year":2015,"month":7,"dayOfMonth":18,"hourOfDay":17,"minute":41,"second":35},"totalWords":1453,"directory":"http://www.latimes.com/"}
