{"wordCounts":{"inspects":1,"fare":1,"smartphone":1,"hands":1,"year":10,"don\u0027t":1,"shakes":1,"your":2,"pretend":1,"setting":1,"begins":1,"would":3,"barcelona":1,"businessciocforisk":1,"\"":1,"mayor":1,"\u0026":8,"investment":1,"reshape":1,"day:":1,"1":1,"left":1,"5":2,"downed":1,"moreworld":1,"metrics":1,"much":1,"commodity":1,"coloradoerdogan\u0027s":1,"sports:":3,"least":1,"blur":1,"turn":1,"alleged":1,"dollar":1,"same":1,"previewadam":1,"legalization":1,"after":1,"close":2,"midterm":1,"linked":1,"a":39,"b":1,"awarded":1,"e":1,"learn":1,"h":1,"i":1,"moretech":2,"l":1,"m":1,"datayour":1,"previewinvestors":1,"n":1,"the":52,"americans":1,"yearopinion:":1,"s":10,"police":1,"u":6,"wankel":1,"readers":2,"fcpacamille":1,"2014shareholders":1,"y":2,"faces":1,"disappointmentssnowden":1,"2008\u0027s":1,"prominence":2,"surgery":1,"eldorado":1,"reports":1,"loggers":1,"appealcapturing":1,"gotsandy":1,"iss":1,"27white":1,"good":5,"got":2,"pushes":1,"act":2,"leave":1,"serious":1,"helped":1,"others":1,"lanza":1,"making":1,"minister":2,"twain\u0027s":1,"spain\u0027s":1,"opinionpopular":1,"its":4,"pay":2,"rivals":1,"aboutbehind":1,"volume":1,"ads":1,"labs":1,"treasury":1,"grotto":1,"success":1,"report:":1,"declinesthe":1,"»":22,"washington":1,"child":1,"disturbed":1,"inmate":1,"moreshow":1,"end":1,"surveillance":2,"lines":1,"victory":1,"jan282012":1,"rich":1,"noonan:":1,"colorado":1,"with":6,"there":1,"well":1,"estatesmall":1,"feminist":2,"gift":1,"movie":1,"braving":1,"steakhouse":1,"focus":1,"investoru":1,"pioneer":1,"years":3,"ikea":1,"policy:":1,"turns":2,"wassleeper":1,"lebanonokinawa":1,"hate":1,"judge":2,"algorithm":2,"tightens":1,"nothing":1,"neil":3,"dismiss":1,"innovator":1,"ever":1,"nycklin":1,"system":1,"million":2,"schools":1,"against":1,"isn\u0027t":2,"local":1,"filings":1,"#cluelessnew":1,"top":1,"yield":2,"have":2,"changedjunk":1,"climbed":1,"kentucky":1,"lessnew":1,"owla":1,"snafutwitter":1,"boat":1,"morereal":2,"species":2,"future":1,"steamholy":1,"golddefendants":1,"firing":1,"sickly":1,"lapsescold":1,"morgenstern":1,"communities":1,"metals":1,"marijuana":2,"previewa":1,"mexican":1,"findshealth":1,"moren":2,"spur":1,"pin":1,"punchthe":1,"moretwitter":1,"madoff":1,"owns":1,"stock":2,"yearraising":1,"all":3,"new":6,"took":1,"read":49,"law":1,"20%":6,"estate":2,"less":2,"real":1,"lowcorruption":1,"carephotosphotosphotosphotosphotosmore":1,"christmas":3,"previewsubscriber":34,"institutions":1,"unit":1,"markets":1,"try":1,"governor":1,"became":1,"financial":1,"articlesthe":1,"media":1,"around":2,"times":1,"ties":1,"and":18,"bunch\u0027":3,"working":1,"says":2,"undermine":1,"comments":2,"pitch:":1,"performing":1,"reverses":1,"probe":2,"uninspiring":2,"investor":1,"moreu":2,"encrypted":1,"changedlouisville":1,"housesland":1,"ship":1,"worldmanagementhealthlife":1,"heattop":1,"moreyour":2,"manneropinion:":1,"where\u0027s":1,"flashpoint":1,"jan":6,"gashedge":1,"butler":1,"state":4,"adviser":1,"worker":1,"nanny":2,"fully":1,"defined":1,"testedabe\u0027s":1,"breachconfidence":1,"broke":1,"chinaregulators":1,"dining":1,"expected":1,"picks":2,"swimmer":1,"meatery":1,"monitoring":1,"countrycamille":1,"previewthe":2,"hubs":1,"000":1,"turkey":2,"removedflooding":1,"newtown":1,"springfield":1,"cultureopinionnew":1,"feels":1,"dominates":1,"toronto":1,"killing":1,"students":1,"prayed":1,"two":1,"pop":1,"gray":1,"pot":2,"are":4,"defense":2,"taken":1,"buzz:":1,"expectations":1,"popular":3,"apps":1,"servicepolicyadvertisetools":1,"services":1,"divecritics":1,"tour":1,"schools\u0027":1,"diagnostics":1,"classic":1,"ownership":1,"\u0027blacklists\u0027":1,"quit":1,"reassess":1,"thing":1,"through":1,"medical":1,"remains":2,"bomb":1,"research":2,"geoffrey":1,"mother":2,"features":1,"paying":1,"white":2,"school":1,"assetsq\u0026a:":1,"has":4,"stability":1,"offwhen":1,"tech":1,"last":2,"town":1,"weighs":1,"bloomberg":1,"sudanese":1,"firestock":1,"significant":1,"supplements":1,"\u0027brady":3,"page":2,"benefits":1,"crunch":3,"ups\u0027s":1,"show":1,"saysbond":1,"video":1,"not":4,"previewcontent":1,"now":3,"\"gravity\"":1,"early":1,"news":2,"pinch":1,"election":1,"streetfood":1,"center":1,"start":1,"war":1,"11%b":1,"futures":1,"teen":1,"bond":1,"target":1,"1964":1,"what":3,"fund":1,"time":1,"rise":3,"cancer\u0027s":1,"yorksportscareersreal":1,"happy":1,"program":1,"three":1,"when":4,"climb":1,"twitter":3,"moremanagement":2,"virtuesschiff":2,"her":1,"temperatures":1,"far":1,"plan":1,"case":1,"subscriber":14,"countslos":1,"coast":1,"cars":1,"phone":1,"style":1,"louisville":1,"nsa":1,"chocolate":3,"care":2,"sportstop":1,"study":1,"2013why":1,"today\u0027s":1,"australian":1,"drinkbest":1,"moremarkets":2,"martina":1,"smart":1,"accidental":1,"modern":1,"physician":1,"semifinal":1,"victimsmerck":1,"means":1,"grip":1,"columnsbosses":1,"more":6,"borrowers":1,"bedside":1,"kidsland":1,"wrong":2,"enrollments":1,"january":1,"economic":1,"sectionsquicklinks:advertisementnov":1,"previewmerck":1,"prizeremember":1,"macdonald:":2,"experience":1,"deadlines":1,"lifenoonan:":1,"dan":2,"his":2,"shows":2,"major":1,"celebrated":1,"ceo\u0027s":1,"consider":1,"countryten":1,"keeps":1,"day":1,"retreatultimate":1,"tapping":1,"siegel:":1,"package":1,"2013businesstechmarketsyour":1,"previewan":1,"cochrane:":1,"most":5,"outside":1,"overhaul":1,"turkish":1,"effect":2,"keep":2,"elementary":1,"cruise":1,"ropes":1,"who":5,"raid":1,"downtownillegal":1,"joe":1,"volcker":1,"nonprofit":1,"their":2,"debut":1,"paglia:":2,"east":1,"causing":1,"billion":1,"boardstoshiba":1,"harlem":1,"move":1,"deadwsj\u0027s":1,"built":1,"occured":1,"say":1,"gets":1,"mean":1,"meat":2,"attention":2,"demands":1,"been":2,"\"american":1,"projects":1,"dec":4,"bad":1,"bring":1,"jumps":1,"offer":1,"bar":1,"they…target:":1,"reflects":1,"rally":2,"prime":2,"gaining":2,"recipes":1,"hariri":1,"banks":1,"past":1,"outchallenging":1,"picksvideoheard":1,"court":4,"an":9,"californiaups":1,"former":2,"population":1,"investorsholy":1,"as":10,"at":9,"plans":2,"trying":1,"deals":1,"revoltfake":1,"eisenstadt":1,"attitude":1,"strong":1,"straitened":1,"be":2,"scheme":1,"lobbyists":1,"hot":1,"sea":1,"schoolhow":1,"how":3,"see":2,"journal":1,"by":1,"civil":1,"labskey":1,"national":2,"term":1,"innovation":1,"set":1,"business":1,"co":1,"2013what":1,"steakhouseback":1,"smokes:":1,"food":1,"blast":1,"battle":1,"stage":1,"calls":1,"series":1,"agency\u0027s":1,"spotlight":1,"jobless":2,"ryan":1,"cadillacchristmas":1,"of…land":1,"emergency":1,"recreational":1,"wishlines":1,"do":1,"fears":1,"stakealibaba":1,"americaapple":1,"startup":1,"legal":5,"talk":1,"prospective":1,"moneyford":1,"needs":1,"angeles":1,"finally":1,"remained":1,"beirut":1,"take":1,"magnitsky":1,"thisthank":1,"homemoocs:":1,"finances":2,"party":3,"numbers:":1,"little":1,"indie":1,"some":1,"landlord":1,"dreier":2,"additional":2,"for":14,"2012":3,"back":1,"content":49,"santa":1,"getting":1,"rate":1,"easy—and":1,"clears":2,"company":1,"ruledeadly":1,"applaud":1,"views":2,"over":1,"six":1,"living":2,"captures":2,"opssherritt":1,"go":1,"previewhalf":1,"killed":1,"home":1,"chartvideo":1,"management":1,"2014":1,"2013":5,"pyramid":1,"presents":1,"2014china\u0027s":1,"big":1,"decade":1,"—business":1,"wsj":3,"hook":1,"shadowsgm":1,"supplies":1,"four":1,"todaycustomer":1,"majority":1,"latin":1,"if":2,"placebo":1,"fear":1,"in":48,"made":2,"bounty":1,"dismissed":1,"shareholder":1,"is":13,"it":5,"being":1,"quizrecession":1,"morelife":2,"40—hold":2,"john":1,"hello":1,"repots":1,"beijing\u0027s":1,"become":1,"turned":1,"weekend":1,"goodbye":1,"portugal":1,"autoswhat":1,"inflated":1,"bankruptcy":2,"world":1,"known":1,"cult":1,"coalition":1,"wintertimethe":1,"everything":1,"can\u0027t":1,"cfo:":1,"cigarette":1,"break":1,"could":2,"change":1,"30%":2,"health":3,"off":2,"kentucky:":1,"knee":1,"lode":1,"landslides":1,"companymark":1,"keying":1,"homeworld":1,"concerned":1,"political":1,"feel":1,"tvlittle":1,"posts":1,"stands":1,"applauseandy":2,"that":8,"suggests":1,"obligationsdon\u0027t":1,"pointlessphotos":1,"pensioners":1,"steadya":1,"moneybeat":1,"than":6,"champagne":1,"picker":1,"international":1,"awaits":1,"redding":1,"mo":1,"childrencity\u0027s":1,"32%":1,"film":2,"comprises":2,"antarctica":1,"compliancemarketsnew":1,"venezuelan":1,"present":1,"heat":2,"no":1,"what’s":1,"best":2,"box":1,"kessler:":2,"boy":2,"oil":1,"of":24,"chocolate\u0027s":1,"prices":2,"met":1,"make":1,"rescue":1,"on":13,"fistfight":1,"askinosie":1,"recover":1,"chance":1,"»how":1,"10%":2,"homeless":2,"scotia":1,"programs:":1,"compound":1,"rapidly":2,"masculine":2,"newshealthcare":1,"due":1,"delhiemail":1,"backs":2,"nuns":1,"featuresmoreofferswhat\u0027s":1,"threatening":1,"about":2,"what\u0027s":2,"09":2,"logjamu":1,"sows":1,"352":2,"firm":1,"bank":1,"estimate":1,"above":1,"year\u0027s":2,"they":1,"chinaoil":1,"10":1,"based":1,"devaluation":1,"13":1,"15":2,"16":2,"old":2,"17":1,"opponents":1,"m\u0026a":1,"them":1,"kart":1,"plansouth":1,"cracking":1,"vitamin":1,"benefit":1,"gratitudeopinion:":1,"horse":1,"doctors":1,"expire":1,"hustle":1,"programs":1,"20":1,"prominent":1,"25":1,"28":2,"moremarket":1,"industry":1,"long":2,"shares":3,"into":3,"preview2013":1,"3%":1,"currents:":1,"overdue":1,"plants":1,"journal\u0027s":1,"so":2,"email":4,"key":1,"31":2,"previewshawn":1,"one":2,"cents":1,"cadillac":1,"launch":1,"people":2,"nugen":1,"worlda":1,"financeworldweekend":1,"impostor":1,"hidebound":1,"progress":1,"ranking":1,"aluminumsay":1,"to":30,"story":2,"43":1,"but":5,"builders":3,"endangered":2,"seven":1,"basicsthe":1,"150":1,"payouts":1,"specs":1,"previewsam":1,"ruled":1,"bethlehem":1,"california":2,"up":6,"five":1,"standardsfennel":1,"icy":1,"films":2,"exploded":1,"dropping":1,"revealing":1,"this":6,"please":1,"collection":1,"finding":2,"look":1,"once":2,"guessed":1,"slippingchina":1,"purchasers":1,"obamacare…even":1,"vs":1,"changed":1,"allow":1,"drop":1,"potatoes":1,"brazil":1,"saad":1,"adults":1,"jumped":2,"changes":1,"swept":1,"previewwe":1,"update":1,"cold":2,"201417":1,"bitter":1,"stocks":1,"expects":1,"we":1,"erdogan":1,"gas":1,"gay":1,"they\u0027re":1,"again":1,"politician":1,"teach":1,"lifeportrait":1,"money":3,"healthy":1,"marc":1,"yields":1,"moreopinion":2,"barron\u0027s":1,"jason":1,"formula":1,"portrays":1,"base":1,"conn":1,"2013economic":1,"asheesh":1,"critic":1,"children":1,"presence":1,"housesopinion:":1,"between":1,"natural":2,"countrywhy":1,"dressed":1,"elections":1,"morebusiness":2,"conundrumphilippines":1,"frays":1,"previewmarathon":1,"love":1,"south":1,"collier:":1,"wasteland":1,"secret":1,"our":5,"pictures":1,"out":4,"recall":1,"get":1,"federal":2,"appstaking":1,"telecom":1,"power":1,"informed":2,"sits":1,"countrydan":1,"sudan":1,"bullish":1,"bigger":1,"facebook":2,"newspartner":1,"lawmakers":1,"hits":3,"expect":1,"help":1,"cease":1,"vitamins":1,"culture":2,"2013modcloth":1,"asset":1,"first":2,"data":2,"own":1,"tight":1,"sales":1,"drug":2,"only":1,"should":1,"create":1,"from":5,"comforts":1,"cartelprosecutor":1,"development":1,"tap":1,"individual":1,"patients":1,"stranded":1,"branches":1,"sent":2,"fraud":2,"dismissing":1,"goel":1,"note":1,"accorded":2,"death":1,"investchildhood":1,"line":1,"advice":1,"according":1,"winter":1,"recovery":1,"error":1,"engaging":2,"holding":1,"security":1,"car":1,"ready":1,"demandswiss":1,"weed":1,"value":1,"3%ultimate":1,"shiprising":1,"youerror":1,"will":1,"gov\u0027s":1,"centersponsored":1,"fans":1,"dilemmalittle":1,"washing":1,"carries":1,"storied":1,"prepares":1,"challenge":2,"moneyu":1,"delhi":1,"helpnov":1,"rival":1,"2014nov":1},"timeStamp":{"year":2013,"month":11,"dayOfMonth":28,"hourOfDay":1,"minute":43,"second":27},"totalWords":1707,"directory":"http://online.wsj.com/home-page"}
