{"wordCounts":{"busywork":1,"half":2,"introduces":3,"your":5,"pentecostal":2,"urge":1,"building":5,"music":2,"would":7,"fitness: when":1,"moving":2,"href\u003d\"":1,"sails":1,"»magazine":1,"mayor":1,"\u0026":19,"proud:":1,"\u0027":2,"google":1,"community":1,"shaking":1,"planning":2,"1":3,"faqs":2,"3":7,"5":2,"israeli":2,"6":1,"science":2,"7":1,"warming":1,"inspires":1,"protons":1,"dawn":2,":":1,"timespoints":1,"detail":1,"folded":1,"wine":3,"acct":1,"newspaper":3,"exhale":1,"southern":1,"beware":2,"forest":1,"role":1,"turn":2,"manual":1,"ces":3,"opposition":2,"roddick":1,"after":1,"listing":1,"close":1,"linked":2,"policy":1,"a":67,"preferences":1,"saint":1,"e":3,"abe":1,"f":2,"defends":2,"iphonethe":1,"photo":2,"k":2,"l":1,"eating":1,"n":3,"o":2,"the":107,"s":12,"fast":2,"t":1,"readers":2,"u":8,"storyanywhere":1,"y":5,"days":1,"faces":2,"|":8,"citibank":1,"standard":2,"wheels":2,"couple":1,"reopened":2,"powered":1,"loggers":1,"blogs":2,"turbo":1,"official":2,"good":2,"wish":1,"act":1,"post":4," ":1,"add":2,"mideast":2,"sectors":1,"making":2,"minister":1,"horsepower":1,"popularu":1,"adj":1,"siberian":1,"its":8,"originally":2,"‘citi’":1,"jail":1,"list":3,"»washington":1,"ads":1,"comsd6440":3,"guys":1,"exchange":1,"»":42,"hardly":2,"washington":2,"contributor:":1,"child":1,"moonves":3,"united":2,"detainees":1,"directory":2,"paparazzi":1,"flannel":1,"city’s":2,"cheats":1,"equation:":1,"surveillance":1,"2008dec":1,"umbrella":1,"quarters":2,"music: indie":1,"mobile":1,"personals":2,"rice":3,"krugman:":1,"with":15,"berkeley":1,"china":1,"propertiesfuture":1,"626":2,"magazine":3,"taking":1,"college":2,"romance":3,"education":3,"movie":1,"e*trade":1,"ago":6,"focus":2,"american":2,"changing":2,"gains":1,"turns":2,"palestinian":2,"rip":1,"»education":1,"jurist":1,"pressed":2,"helpdec":1,"thousands":2,"fish:":2,"propose":1,"tough":1,"script":2,"amis:":1,"intelligence":1,"alerts":2,"exit":1,"»sports":1,"schools":1,"meetings":1,"engaged":4,"»media":1,"other":2,"confederate":2,"city":1,"save":2,"holiday":2,"swell":1,"starkly":1,"katrina":2,"dl380":1,"vacuum":1,"top":3,"too":2,"have":6,"electronic":1,"sacred":3,"beachfront":2,"willie":1,"television":2,"automobiles":2,"cheap":1,"opportunities":1,"angeles:":1,"future":5,"atom":1,"silverton":1,"imagining":1,"»the":1,"com":5,"capital":1,"duke":1,"hangedreaders’":1,"wiretapping":1,"trial":1,"wake":2,"polyester":1,"carr’s":2,"raise":1,"pipe":1,"stock":1,"net":3,"all":2,"new":25,"200839":1,"executives":2,"link:":1,"law":1,"surge":1,"estate":6,"tri":1,"clock":2,"real":6,"couples":1,"»week":2,"tool":2,"army":1,"»health":1,"were":4,"snow":2,"try":2,"suck:":1,"twist":2,"king’s":1,"bitty":1,"financial":2,"bush":2,"york\u0027:":1,"troop":3,"residental":1,"dreams":1,"media":3,"it’s":4,"shamu":1,"teaches":2,"times":6,"wound":1,"ihandcuffs":2,"and":51,"spitzer":1,"today":2,"stepdaughter":2,"land":2,"pesos":5,"21:":1,"floor":2,"says":1,"pastor":2,"weeny":1,"chief":1,"rates":2,"inherited":2,"martin":1,"president’s":2,"sketch":1,"seahawks":1,"reason":1,"collectible":1,"thought":2,"complaintsnews":1,"advertising":2,"grieve":2,"anywhere":2,"professional":1,"hussein’s":2,"jan":3,"flashpoint":1,"state":3,"strut":3,"adviser":1,"les":2,"meeting":4,"events":5,"cheers":1,"adonce":1,"shopping":1,"diplomacy:":1,"surfacing:":1,"00\"":3,"00%":1,"centenarian":1,"dining":2,"hosts":1,"investigating":2,"want":1,"comnewspaperdec":1,"apy":2,"monitoring":1,"demand":2,"eye":5,"000":2,"n1942":3,"»rabbi":1,"mystery":2,"peopledesigning":1,"pad:":1,"quotes:":1,"height\u003d280":1,"cut":2,"giving":1,"journalists":2,"food:":1,"rss":1,"are":9,"defense":1,"does":1,"show:":1,"visions":1,"where":4,"ark":2,"takes":2,"kitchen":1,"arts":2,"popular":1,"limits":1,"latest":3,"quiz":1,"think":4,"vice":2,"art":1,"»home":1,"againchanges":1,"black":2,"usserviceshelpnytimes":1,"moore:":1,"services":2,"»world":1,"bondrabbi":1,"theft":1,"describes":2,"macworld":3,"newsmakers":2,"\"wholesale":2,"doesn’t":1,"speech":1,"watch":1,"ask":1,"hailed":2,"»books":1,"fashion":2,"through":2,"documents":1,"»science":1,"eaton":1,"run":1,"had":1,"immanuel":2,"bomb":1,"domestic":1,"bedford":2,"view":4,"paying":3,"white":1,"houses":1,"cracks":1,"has":2,"worry":2,"tech":1,"town":4,"campus":1,"ultimate":3,"feature:":2,"weight":2,"“pastor”":2,"legal:":1,"bold":1,"mentally":2,"whatever":1,"marrying":1,"employees":2,"fields":1,"05%":1,"next":1,"submit":4,"show":2,"edition":1,"video":3,"summit":1,"house":6,"wave":1,"299":1,"not":1,"pizza":3,"avg":2,"nov":2,"florian":2,"street":1,"now":4,"bloggers":1,"factor":2,"early":1,"blogged":1,"boos":1,"news":6,"src\u003d\"":2,"delivery":5,"election":1,"breaks":1,"was":2,"purchase":1,"war":3,"detects":2,"discordant":1,"stars":1,"bond":1,"way":6,"savior":2,"equal":1,"what":5,"giants":1,"time":9,"basics:":1,"rise":1,"greg":1,"1966":2,"detailget":1,"play":3,"yard":1,"happy":1,"interactive":1,"charles":1,"program":1,"three":2,"when":2,"authorized":1,"officials":2,"streetscapes":1,"catch":2,"savings":2,"plan":4,"gallery":2,"case":1,"meets":1,"depends":2,"gene":2,"iran":3,"iraq":6,"cars":4,"sunday":2,"1981":1,"slide":1,"1980":1,"bounds":1,"style":4,"»movies":1,"care":2,"browse":2,"study":2,"hussein":3,"tabs":1,"dome":1,"anti":2,"glasses":1,"los":1,"modern":2,"web":4,"editor":2,"20070115165305js_":1,"chain":3,"desire":2,"unmaking":1,"more":8,"nomination":1,"wrangling":3,"rage":1,"’s":1,"garden":4,"travel":2,"hanging":1,"stuff":3,"small":3,"outlines":1,"showa":1,"feb":2,"4mm…\"":2,"obituaries":2,"arrest":1,"before":3,"pakistan":1,"simple":2,"aviation":2,"him":2,"hit":2,"looks":1,"his":8,"7;abr\u003d":3,"day":1,"doubleclick":3,"obtain":2,"banana":1,"semite":1,"borne":1,"minutes":6,"opened":2,"archive":2,"history":1,"market":4,"10:20":1,"most":1,"camps":1,"corrections":2,"keep":2,"nerve":2,"automotive":2,"job":4,"daughter":1,"who":4,"politics":1,"clinics":1,"part":1,"their":2,"faith":1,"eat:":1,"relaxed":1,"along":2,"cheney":2,"david":3,"here\"":1,"win":2,"harlem":4,"timesselect":1,"crowded":2,"say":2,"also":4,"prosecutor":1,"increase":3,"seeking":1,"biden":1,"dramas":1,"feb152006":1,"earn":2,"nyc":3,"propels":2,"uses":2,"visit":1,"customer":2,"gunboat":1,"alzheimer’s":2,"nyt":5,"boys":1,"mazzetti":1,"»opinion":2,"server—just":1,"crossword":2,"recordsbuilding":1,"finds":2,"ángel":1,"editorial:":2,"manufacturing":2,"cityscape":1,"trends:":1,"love: what":1,"you":2,"accepting":2,"jump":1,"employers":1,"bunker":1,"ad":8,"mates":1,"mourning":2,"shock":3,"profile":1,"proliant":1,"court":3,"am":3,"an":16,"former":1,"ap":2,"as":16,"at":17,"globe":1,"flexible":1,"islands":1,"plans":5,"plant":2,"peace":2,"explorer:":1,"firms":1,"brother":2,"leslie":1,"hurt":1,"mirror":1,"be":2,"quizpaparazzi":1,"cardwell":1,"interior":1,"refinery":1,"how":1,"see":6,"search":5,"by":19,"national":1,"sep":2,"set":1,"charge":1,"business":6,"democrats":4,"dots":1,"keeping":1,"founder":2,"jobs":5,"familiar":3,"co":2,"»news":1,"towncheney":1,"domain: want":1,"meet":2,"taught":2,"river":1,"under":1,"essential":2,"yorkabout":1,"hollywood":3,"beauty":1,"feeds  ":1,"scare":1,"questions":2,"do":3,"girls":1,"down":1,"57th":1,"hold":2,"later":2,"attacks":1,"equifax":2,"plansvacuum":1,"club":1,"talk":2,"oreck":2,"commissioner":2,"ed":1,"franco":1,"agreements":1,"middleton":1,"yorke":1,"ameritrade":1,"et":3,"searched":1,"take":1,"language\u003d\u0027javascript1":1,"ex":1,"debt":2,"foe":3,"little":3,"»most":1,"some":3,"itty":1,"identifying":2,"loan":1,"waiting":2,"deletions":1,"for":24,"back":1,"skies:":2,"calif":1,"india":2,"heartland":1,"miss":2,"states":2,"2008":2,"2007":3,"perhaps":2,"2006":3,"tennessee":2,"plot":1,"paley":2,"20070115165305":1,"»business":1,"company":1,"nuclear":1,"human":2,"just":2,"owner":2,"over":10,"digital":4,"living":2,"captures":2,"go":7,"50%":2,"expands":2,"concerns":1,"home":9,"prosecutors":1,"print":2,"500":1,"beach":2,"he":6,"patriots":1,"president":2,"border\u003d0":1,"advanced":2,"16nyt":1,"answers":1,"hp":1,"counsels":2,"hope":3,"executive":1,"stuyvesant":2,"william":2,"action":2,"methodist":1,"id":1,"kindness":2,"french":1,"letters":1,"burns":2,"likely":3,"\u0027i":1,"in":41,"director":1,"barry:":1,"bits":2,"autos":3,"is":11,"it":6,"dynamo":2,"protest":2,"field":1,"explored":2,"asks":4,"john":2,"christopher":1,"begin":1,"server":1,"http:":3,"weddings":2,"rock’s":1,"workrice":1,"government":4,"world":3,"library":1,"inquiry":1,"blair":1,"kids’":1,"december":2,"affirmative":2,"newsweekly":2,"immigration":1,"timespointstwo":1,"may":1,"success:":2,"within":1,"health":3,"draw":1,"mba":1,"meticulous":2,"off":4,"multimedia":2,"trusted":1,"louise":1,"complete":6,"return":1,"auto":3,"theirs":1,"mail":2,"advertisers":2,"political":1,"angel":1,"iraqi":4,"photos":3,"second":2,"radio":1,"that":6,"reuters":2,"split":3,"falls":1,"reviews":1,"fine":1,"find":2,"me":1,"bilingual":2,"inns":1,"grain":1,"credit":1,"months":2,"technology:":2,"ideas":3,"irreconcilable":1,"my":1,"kant":2,"friends":2,"amazon":1,"expand":1,"dream":2,"scientists":1,"noscript":2,"coal":2,"announcements":1,"harvard":1,"since":1,"parents":1,"newark":1,"behind":1,"legacy":1," frank rich: he’s":1,"student":1,"best":6,"switch":1,"head":3,"oil":1,"hour":3,"of":35,"abbas":2,"men":3,"vampire":1,"consumers":2,"magazines":1,"fight":1,"on":25,"»fashion":1,"op":2,"or":5,"sports":2,"social":1,"»inside":1,"control":1,"100":1,"opinions":2,"luxury":1,"online":3,"writer":1,"tools:":1,"properties":2,"villa":1,"01":3,"fiercest":2,"about":7,"decency":2,"quotes":1,"cover":1,"firm":2,"bank":1,"sliver":1,"myre 10:36":1,"1\u0027":1,"raises":1,"friend":3,"fire":1,"cbsapple":1,"alt\u003d\"click":1,"brand":1,"they":1,"12":2,"fashioned":1,"brady\u0027s":1,"15":9,"16":7,"17":1,"old":2,"19":1,"hurricane":2,"ie5;sz\u003d336x280;ord\u003d2007":2,"b1988537":3,"\u0027guru\u0027:":1,"saddam":4,"oppose":1,"allies":2,"22":1,"24":5,"25":1,"readers\u0027":2,"27":1,"don’t":1,"foxman":1,"executed":2,"industry":1,"global":1,"reshaping":2,"teeny":1,"long":2,"»automobiles":1,"listings":2,"into":2,"outline":1,"secretary":2,"danilo":2,"»real":1,"detroit":3,"readers’":1,"free":3,"workers":2,"cuts":3,"calendar":4,"starter":3,"39":1,"one":3,"makes":2,"mogul":1,"wears":1,"maker":2,"enemies":2,"store":3,"quits":2,"chargers":2,"people":4,"bitstwo":1,"designing":2,"td":1,"kate":2,"celebrations":1,"depths":1,"dealer":1,"to":58,"open":2,"story":3,"but":4,"middletonbiden":1,"homebarry:":1,"diane":1,"45":1,"commercial":1,"tv":2,"salvation":2,"49":1,"bush’s":2,"“national":2,"laos’s":1,"rules":1,"\u0027you":1,"inside":2,"honors":1,"ick":2,"nelson:":1,"leaves":1,"military":2,"details":1,"aids":1,"up":2,"perspectives:":1,"52":1,"referencejob":1,"series:":1,"53":3,"us":1,"children\u0027s":1,"debtinteractive":1,"dealers":2,"complaints":2,"this":1,"iranians\u0027":1,"bears":2,"look":1,"watch™":1,"grounds":1,"cartoons":2,"once":1,"forge":2,"hp’s":1,"youthful":1,"flying":2,"headlines":1,"olmert":2,"60":2,"region":5,"ml150":1,"storefront":3,"vs":6,"support":1,"analysts":2,"colo":1,"brazil":1,"records":1,"changes":1,"privacy":1,"learning":2,"»timesselect":1,"life":2,"we":4,"stocks":1,"blues":1,"apple":2,"gonzalez":1,"settles":1,"kit":1,"gulf":3,"wants":2,"every":2,"clusters":1,"coverage":2,"lodges":1,"patron":1,"cases":2,"apply":1,"again":1,"letters”":2,"technology":2,"britney":1,"bars":1,"»technology":1,"summitstanley":1,"vaccine":1,"stop:":1,"groundssmithfield":1,"cotillions":2,"money":1,"youtube:":3,"marc":1,"formula":2,"step":2,"comment":3,"location":1,"mark":1,"held":2,"reach":2,"»travel":1,"venezuela":1,"movies":2,"selects":1,"egghead":2,"loss":2,"retiring":2,"caribbean":2,"»n":1,"elevator":1,"problem":1,"1851":1,"review":9,"price":1,"games":2,"weather":2,"yr":2,"»u":2,"96":2,"guide":3,"mailed":1,"comn":1,"goal":1,"\u0027house":1,"teams":1,"work":1,"broadway:":1,"classifieds":5,"come":2,"dressed":1,"iphone":7,"resistance":2,"push":2,"toward":2,"books":5,"revolutionary":2,"tinted":2,"johnny":1,"coveted":2,"word":2,"glitters":2,"interiors:":1,"love":2,"flock":3,"flag":2,"cityscaperice":1,"may:":2,"church":9,"growthhe":1,"herbert:":1,"our":2,"out":4,"techget":1,"across":1,"mortgage":1,"ie4;abr\u003d":2,"get":6,"congregation":2,"hopes":3,"power":1,"event":1,"thom":1,"sell":1,"cool":1,"reimagines":2,"leaderstaking":1,"opinion":3,"help":2,"site":2,"faqsles":1,"highlights":3,"podcasts":2,"etiquette":1,"soldier":1,"unified":2,"ed:":1,"chorus":1,"connecting":1,"architectural":2,"reimagining":1,"first":2,"indian":1,"prepared":1,"lede":2,"bombs":1,"glasseswhat":1,"rebuilding":1,"leaders":3,"blog":5,"allure":1,"sales":3,"»television":1,"growing":2,"hanged":1,"portfolio":1,"theater":3,"only":2,"should":1,"from":10,"strives":2,"gambles":1,"williamsburg:":1,"santora 9:09":1,"nytimes":7,"tan":1,"centuries":1,"iraqis":3,"ill":2,"ie;sz\u003d336x280;ord\u003d2007":1,"twistluxury":1,"outrageousness":1,"efforts":4,"shanker":1,"presidential":1,"smithfield":1,"img":1,"week":7,"tickets":1,"challenges":2,"according":2,"link":1,"herr":1,"network":3,"can":7,"security":2,"award":2,"»arts":1,"public":2,"car":3,"winds":1,"terrorism":2,"marriage":1,"said":2,"village":1,"width\u003d336":1,"inc":3,"affairs":1,"costs":3,"will":3,"match":1,"trades":1,"20070115165305im_":1,"follow":1,"played":1,"trade":1,"round":2,"cbs":4,"»theater":1,"york":9,"»dining":1,"growth":1,"stanley":1},"timeStamp":20070115165305,"totalWords":2756,"directory":"http://www.nytimes.com/"}
